    7
Geometry Step: 34
    C      0.72642746      0.11700323     -0.03067446      3.63668795
    H      1.25538485     -0.90524596     -0.02867756      1.00831233
    C     -0.78156492      0.06125962     -0.03057257      4.26554233
    H     -1.17695972      0.57402443     -0.91590812      0.90359467
    H     -1.15063307     -0.96943221     -0.02876782      0.92930633
    H     -1.17693534      0.57709958      0.85298771      0.90359451
    O      1.35102712      1.13752839     -0.03265385      6.35296187
